ITEM: TIMESTEP
100
ITEM: NUMBER OF ATOMS
1000
ITEM: BOX BOUNDS xx yy zz
-1.1794170508e-08 0.050000011794
0.0 0.05
0.0 0.0
ITEM: ATOMS x y z s_xz s_xy s_y s_x s_z damage grid_id stress_I kinetic_energy F_x id s_yz
0.00781869039 0.0106820018 0.0 0.0 -2064.1651 38.6367001 2999.85931 0.0 0.0 0.0 3038.49601 4.28705351e-12 1670705.02 998.0 0.0
0.00815279102 0.00592645267 0.0 0.0 1095.7913 214.035905 3281.28109 0.0 0.0 0.0 3495.317 4.10376644e-12 -1845466.77 976.0 0.0
0.00211181821 0.00841615198 0.0 0.0 0.0 0.0 0.0 0.0 0.0 0.0 0.0 4.06071005e-15 0.0 941.0 0.0
0.00500423821 0.00852845203 0.0 0.0 0.0 0.0 0.0 0.0 0.0 0.0 0.0 1.65893026e-14 0.0 938.0 0.0
0.012238643 0.0118387018 0.0 0.0 3629.31216 -111.027313 2931.94372 0.0 0.0 0.0 2820.91641 1.14495956e-12 968747.605 923.0 0.0
0.0111143428 0.00603810285 0.0 0.0 -1515.24446 114.809554 3041.91199 0.0 0.0 0.0 3156.72155 2.00936609e-12 -1389755.11 905.0 0.0
0.0121260436 0.00494182321 0.0 0.0 -128.92469 62.2735466 2956.03773 0.0 0.0 0.0 3018.31127 1.17708044e-12 -482232.33 894.0 0.0
0.000596508206 0.00183997255 0.0 0.0 0.0 0.0 0.0 0.0 0.0 0.0 0.0 1.35133348e-13 0.0 866.0 0.0
0.000699638206 0.0108879518 0.0 0.0 0.0 0.0 0.0 0.0 0.0 0.0 0.0 8.04330116e-15 0.0 826.0 0.0
0.0103280424 0.00490602301 0.0 0.0 -2427.26129 33.7679272 3098.12896 0.0 0.0 0.0 3131.89689 2.20540622e-12 -552409.524 407.0 0.0
0.0092994415 0.00809715234 0.0 0.0 -4071.82398 -19.8341589 3004.64717 0.0 0.0 0.0 2984.81301 2.26516732e-12 -1288537.56 403.0 0.0
0.00520408946 0.00689035226 0.0 0.0 2398.3089 132.746502 2225.66186 0.0 0.0 0.0 2358.40836 5.58144472e-12 596815.571 399.0 0.0
0.00527988964 0.00206898809 0.0 0.0 4289.60822 245.238042 3153.13361 0.0 0.0 0.0 3398.37165 3.3974482e-12 1190005.75 396.0 0.0
0.00354833821 0.0109252018 0.0 0.0 0.0 0.0 0.0 0.0 0.0 0.0 0.0 1.17168497e-14 0.0 380.0 0.0
0.00860974159 0.00209072344 0.0 0.0 803.229135 214.046191 4173.15483 0.0 0.0 0.0 4387.20102 2.8959863e-12 -1543395.94 369.0 0.0
0.0112280934 0.000738739054 0.0 0.0 -457.364422 -206.975316 3746.12941 0.0 0.0 0.0 3539.15409 7.44044788e-13 -3735036.38 366.0 0.0
0.00365661821 0.00769435204 0.0 0.0 0.0 0.0 0.0 0.0 0.0 0.0 0.0 4.29755368e-15 0.0 361.0 0.0
0.00649618991 0.00799520223 0.0 0.0 -7118.04658 225.835398 2851.42428 0.0 0.0 0.0 3077.25968 5.03697379e-12 -1051174.25 354.0 0.0
0.00629113965 0.0113935517 0.0 0.0 -1715.04982 225.325097 2671.04942 0.0 0.0 0.0 2896.37451 4.30064772e-12 -167417.593 338.0 0.0
0.00355005821 0.00472898252 0.0 0.0 0.0 0.0 0.0 0.0 0.0 0.0 0.0 3.92777891e-14 0.0 320.0 0.0
0.00247887821 0.00353938254 0.0 0.0 0.0 0.0 0.0 0.0 0.0 0.0 0.0 1.75428466e-13 0.0 317.0 0.0
0.00451697321 0.00348387275 0.0 0.0 0.0 0.0 0.0 0.0 0.0 0.0 0.0 1.91178002e-13 0.0 292.0 0.0
0.00493046821 0.0101527519 0.0 0.0 0.0 0.0 0.0 0.0 0.0 0.0 0.0 6.54182307e-15 0.0 280.0 0.0
0.00356816821 0.00218724779 0.0 0.0 0.0 0.0 0.0 0.0 0.0 0.0 0.0 1.05160285e-13 0.0 276.0 0.0
0.00529213966 0.00517075254 0.0 0.0 3589.28537 93.8818459 2525.32326 0.0 0.0 0.0 2619.2051 6.78097309e-12 -1495909.36 266.0 0.0
0.000945393206 0.000560237662 0.0 0.0 0.0 0.0 0.0 0.0 0.0 0.0 0.0 2.50528751e-13 0.0 244.0 0.0
0.012186043 0.0101232521 0.0 0.0 -1217.53903 -43.326546 2991.82488 0.0 0.0 0.0 2948.49833 1.66681183e-12 -560636.729 238.0 0.0
0.0095452421 0.00341526314 0.0 0.0 -2097.03672 215.286846 3579.76643 0.0 0.0 0.0 3795.05327 3.02198795e-12 -2649594.7 221.0 0.0
0.00697929042 0.00484885774 0.0 0.0 2119.43244 159.293325 3062.03236 0.0 0.0 0.0 3221.32568 4.65885704e-12 -1808491.9 215.0 0.0
0.000790488206 0.00616125225 0.0 0.0 0.0 0.0 0.0 0.0 0.0 0.0 0.0 1.02450308e-13 0.0 209.0 0.0
0.00700984061 0.00210421832 0.0 0.0 1614.65374 212.676009 4379.38396 0.0 0.0 0.0 4592.05997 1.85064326e-12 -617667.772 93.0 0.0
0.000733933206 0.0046390774 0.0 0.0 0.0 0.0 0.0 0.0 0.0 0.0 0.0 2.44817918e-13 0.0 79.0 0.0
0.0108157925 0.00755475253 0.0 0.0 -1268.03004 50.5057407 3077.38265 0.0 0.0 0.0 3127.88839 1.59082068e-12 -768154.51 65.0 0.0
0.0106906421 0.0124918016 0.0 0.0 615.356511 -89.8451833 2872.51893 0.0 0.0 0.0 2782.67375 4.1987277e-12 505679.504 55.0 0.0
0.000674153206 0.00923370194 0.0 0.0 0.0 0.0 0.0 0.0 0.0 0.0 0.0 3.23578676e-14 0.0 54.0 0.0
0.00385442821 0.00613535229 0.0 0.0 0.0 0.0 0.0 0.0 0.0 0.0 0.0 1.73832951e-14 0.0 34.0 0.0
0.00780244116 0.000695043867 0.0 0.0 671.077508 -264.266732 4191.49388 0.0 0.0 0.0 3927.22715 9.62194205e-13 -2069585.38 37.0 0.0
0.00600648994 0.00361539786 0.0 0.0 4183.82748 253.653427 3119.28107 0.0 0.0 0.0 3372.9345 4.85875742e-12 -1614406.73 119.0 0.0
0.00275762321 0.000733597864 0.0 0.0 0.0 0.0 0.0 0.0 0.0 0.0 0.0 2.18833854e-13 0.0 161.0 0.0
0.00780599105 0.00340665307 0.0 0.0 801.275809 237.091351 3599.85084 0.0 0.0 0.0 3836.94219 4.31000935e-12 -2443960.67 175.0 0.0
0.00787484053 0.0089798021 0.0 0.0 -4602.09718 86.6621755 3113.43903 0.0 0.0 0.0 3200.1012 3.11034031e-12 144680.472 192.0 0.0
0.00876834162 0.00469271292 0.0 0.0 1005.50668 71.4870995 3038.7255 0.0 0.0 0.0 3110.2126 2.43357881e-12 -1330801.35 193.0 0.0
0.00444032321 0.000702613427 0.0 0.0 0.0 0.0 0.0 0.0 0.0 0.0 0.0 6.60313158e-14 0.0 196.0 0.0
0.0121394431 0.00846290248 0.0 0.0 848.729765 -57.4287597 2937.73112 0.0 0.0 0.0 2880.30237 5.22219626e-13 -412620.205 416.0 0.0
0.0104690929 0.00211764857 0.0 0.0 -1356.73815 215.55037 4080.9641 0.0 0.0 0.0 4296.51447 2.4744853e-12 -3339615.6 427.0 0.0
0.00346556321 0.0092806519 0.0 0.0 0.0 0.0 0.0 0.0 0.0 0.0 0.0 4.75609548e-16 0.0 483.0 0.0
0.00199052321 0.00210803762 0.0 0.0 0.0 0.0 0.0 0.0 0.0 0.0 0.0 2.03058108e-13 0.0 491.0 0.0
0.00790789077 0.00739920242 0.0 0.0 -7856.51598 78.9454791 3235.39121 0.0 0.0 0.0 3314.33669 4.10932477e-12 -922806.516 514.0 0.0
0.0106579422 0.0092062022 0.0 0.0 -2229.20402 -26.968964 2969.39863 0.0 0.0 0.0 2942.42966 1.79348282e-12 110946.727 521.0 0.0
0.00952674243 0.000759613977 0.0 0.0 -1440.02727 -265.088752 3538.479 0.0 0.0 0.0 3273.39025 8.27710751e-13 -3311359.07 526.0 0.0
0.000773958206 0.0075983521 0.0 0.0 0.0 0.0 0.0 0.0 0.0 0.0 0.0 3.6506592e-14 0.0 527.0 0.0
0.000818813206 0.0123757016 0.0 0.0 0.0 0.0 0.0 0.0 0.0 0.0 0.0 8.58291245e-15 0.0 540.0 0.0
0.0124324935 0.00684745282 0.0 0.0 -165.816892 31.3148226 2987.61785 0.0 0.0 0.0 3018.93267 3.53263433e-13 -754352.241 543.0 0.0
0.00953099182 0.00648900266 0.0 0.0 -2801.23638 178.996902 3100.87162 0.0 0.0 0.0 3279.86852 3.51258595e-12 -1679251.51 574.0 0.0
0.0107243922 0.0109254519 0.0 0.0 1472.51759 19.7772135 3078.3804 0.0 0.0 0.0 3098.15761 2.71469133e-12 543040.472 594.0 0.0
0.00215645821 0.0116885517 0.0 0.0 0.0 0.0 0.0 0.0 0.0 0.0 0.0 2.13680225e-14 0.0 612.0 0.0
0.000848358206 0.00327174749 0.0 0.0 0.0 0.0 0.0 0.0 0.0 0.0 0.0 1.86557266e-13 0.0 619.0 0.0
0.00658919012 0.00628495255 0.0 0.0 566.340919 276.184687 2972.06752 0.0 0.0 0.0 3248.25221 5.50813238e-12 223707.17 621.0 0.0
0.00211503321 0.00525000235 0.0 0.0 0.0 0.0 0.0 0.0 0.0 0.0 0.0 1.0552672e-13 0.0 624.0 0.0
0.0120584938 0.00204335867 0.0 0.0 -231.93906 202.992863 4042.61118 0.0 0.0 0.0 4245.60404 1.91055147e-12 -3525560.11 627.0 0.0
0.00340863321 0.0124483516 0.0 0.0 0.0 0.0 0.0 0.0 0.0 0.0 0.0 2.16774584e-14 0.0 631.0 0.0
0.00768994042 0.0122833515 0.0 0.0 2605.14545 26.6748687 2917.09591 0.0 0.0 0.0 2943.77078 6.66672193e-12 506380.667 675.0 0.0
0.00210898321 0.0100581518 0.0 0.0 0.0 0.0 0.0 0.0 0.0 0.0 0.0 1.75382184e-16 0.0 682.0 0.0
0.0112134932 0.0035210033 0.0 0.0 203.634065 133.100965 3360.46628 0.0 0.0 0.0 3493.56724 1.52602352e-12 -2540150.56 718.0 0.0
0.00637653968 0.00965760194 0.0 0.0 -3003.18708 244.541302 2770.34641 0.0 0.0 0.0 3014.88771 3.44416452e-12 -456011.042 726.0 0.0
0.00617669024 0.000695223712 0.0 0.0 1369.53318 -300.902314 3656.63463 0.0 0.0 0.0 3355.73231 2.84707282e-12 177031.94 758.0 0.0
0.00923979129 0.00982430198 0.0 0.0 -933.57467 32.6425734 3127.12445 0.0 0.0 0.0 3159.76703 3.01284019e-12 162611.688 789.0 0.0
0.00918699124 0.0115512016 0.0 0.0 380.788766 8.17367045 3145.97487 0.0 0.0 0.0 3154.14854 5.77916185e-12 402185.863 793.0 0.0
0.00237708321 0.00680725218 0.0 0.0 0.0 0.0 0.0 0.0 0.0 0.0 0.0 3.72690489e-14 0.0 806.0 0.0
0.00491964321 0.0117657017 0.0 0.0 0.0 0.0 0.0 0.0 0.0 0.0 0.0 7.01881921e-14 0.0 807.0 0.0
0.00238253821 0.0168396509 0.0 0.0 0.0 0.0 0.0 0.0 0.0 1.0 0.0 1.52657419e-13 0.0 978.0 0.0
0.00964919063 0.0217660503 0.0 0.0 -11826.8776 183.876731 1982.04643 0.0 0.0 1.0 2165.92316 4.7274438e-12 -1297036.57 955.0 0.0
0.00504298821 0.0235834 0.0 0.0 0.0 0.0 0.0 0.0 0.0 1.0 0.0 2.02850685e-13 0.0 932.0 0.0
0.00624988976 0.0132020514 0.0 0.0 629.688681 178.595165 2616.91045 0.0 0.0 1.0 2795.50561 7.41329848e-12 -1073891.76 925.0 0.0
0.0111904411 0.0222348002 0.0 0.0 -11436.9526 147.573883 1806.66807 0.0 0.0 1.0 1954.24196 3.5260619e-12 -1470704.06 898.0 0.0
0.00356383821 0.0228635 0.0 0.0 0.0 0.0 0.0 0.0 0.0 1.0 0.0 1.25719145e-13 0.0 897.0 0.0
0.00393010821 0.0170543009 0.0 0.0 0.0 0.0 0.0 0.0 0.0 1.0 0.0 4.07247989e-15 0.0 895.0 0.0
0.00892844006 0.0243280501 0.0 0.0 -2789.45972 276.498252 1950.6867 0.0 0.0 1.0 2227.18496 9.66916952e-12 145157.341 891.0 0.0
0.00473486821 0.0131450015 0.0 0.0 0.0 0.0 0.0 0.0 0.0 1.0 0.0 5.47917146e-14 0.0 888.0 0.0
0.000856683206 0.0210370003 0.0 0.0 0.0 0.0 0.0 0.0 0.0 1.0 0.0 1.3297266e-13 0.0 863.0 0.0
0.00509333915 0.0206846502 0.0 0.0 -3891.22187 48.3739936 1651.43911 0.0 0.0 1.0 1699.81311 7.89019747e-12 1350568.07 860.0 0.0
0.00768569053 0.0140003512 0.0 0.0 678.752991 80.7465259 2757.85568 0.0 0.0 1.0 2838.6022 9.00761514e-12 -2046071.48 847.0 0.0
0.00366777321 0.0155799012 0.0 0.0 0.0 0.0 0.0 0.0 0.0 1.0 0.0 3.69804954e-14 0.0 838.0 0.0
0.0124349928 0.016573951 0.0 0.0 -3848.05231 0.802936911 2486.09237 0.0 0.0 1.0 2486.8953 6.73904648e-13 -2676664.68 832.0 0.0
0.000787648206 0.0137847514 0.0 0.0 0.0 0.0 0.0 0.0 0.0 1.0 0.0 7.16319991e-20 0.0 394.0 0.0
0.000684708206 0.02436985 0.0 0.0 0.0 0.0 0.0 0.0 0.0 1.0 0.0 7.98995855e-16 0.0 388.0 0.0
0.00414803821 0.0195991504 0.0 0.0 0.0 0.0 0.0 0.0 0.0 1.0 0.0 2.25126118e-13 0.0 372.0 0.0
0.00353934321 0.0141563014 0.0 0.0 0.0 0.0 0.0 0.0 0.0 1.0 0.0 3.73943524e-14 0.0 360.0 0.0
0.00858994078 0.0187834006 0.0 0.0 -8216.57713 153.772825 2285.93137 0.0 0.0 1.0 2439.7042 2.59551021e-12 -2467684.98 346.0 0.0
0.0107061913 0.0207175504 0.0 0.0 -13013.5392 131.323848 1994.5064 0.0 0.0 1.0 2125.83025 2.24682799e-12 -3547650.04 334.0 0.0
0.00745308954 0.0238716001 0.0 0.0 -2390.52142 309.003871 2005.30054 0.0 0.0 1.0 2314.30441 7.58453216e-12 1526735.78 309.0 0.0
0.00211285821 0.0184817506 0.0 0.0 0.0 0.0 0.0 0.0 0.0 1.0 0.0 1.83283009e-13 0.0 303.0 0.0
0.00214103821 0.0133361515 0.0 0.0 0.0 0.0 0.0 0.0 0.0 1.0 0.0 3.42020124e-14 0.0 288.0 0.0
0.000812468206 0.016503001 0.0 0.0 0.0 0.0 0.0 0.0 0.0 1.0 0.0 5.15335756e-16 0.0 281.0 0.0
0.0112377421 0.0177748007 0.0 0.0 -7881.73713 99.0816047 2438.70893 0.0 0.0 1.0 2537.79053 1.47828879e-12 -3277606.84 255.0 0.0
0.00647243954 0.0210894503 0.0 0.0 -7799.89166 215.980983 1989.30777 0.0 0.0 1.0 2205.28876 7.46810244e-12 -118155.722 248.0 0.0
0.00214593321 0.0218638502 0.0 0.0 0.0 0.0 0.0 0.0 0.0 1.0 0.0 4.58715771e-14 0.0 246.0 0.0
0.00913029126 0.0130657014 0.0 0.0 999.179228 25.4988779 2925.59365 0.0 0.0 1.0 2951.09253 6.7214792e-12 -707623.134 200.0 0.0
0.000734228206 0.0194692006 0.0 0.0 0.0 0.0 0.0 0.0 0.0 1.0 0.0 8.62226008e-14 0.0 49.0 0.0
0.000632688206 0.0151856512 0.0 0.0 0.0 0.0 0.0 0.0 0.0 1.0 0.0 3.67711494e-15 0.0 21.0 0.0
0.00217961321 0.0150701512 0.0 0.0 0.0 0.0 0.0 0.0 0.0 1.0 0.0 8.96231936e-14 0.0 13.0 0.0
0.0109101421 0.015996551 0.0 0.0 -2207.63808 80.9766188 2539.51564 0.0 0.0 1.0 2620.49226 3.01410239e-12 -1606775.66 112.0 0.0
0.00665818934 0.0226728001 0.0 0.0 -4020.73191 237.607444 1931.69751 0.0 0.0 1.0 2169.30495 8.07834256e-12 1031114.94 114.0 0.0
0.00823424079 0.0171891508 0.0 0.0 -6168.00243 108.830192 2508.57126 0.0 0.0 1.0 2617.40145 3.31947482e-12 -3854922.65 129.0 0.0
0.011605391 0.0240369001 0.0 0.0 -6344.61089 192.263277 1554.88226 0.0 0.0 1.0 1747.14554 3.47761426e-12 494750.291 147.0 0.0
0.00662594009 0.0167217508 0.0 0.0 -3248.5653 112.675625 2557.07807 0.0 0.0 1.0 2669.7537 5.92377949e-12 -3351246.11 148.0 0.0
0.000806723206 0.0179311508 0.0 0.0 0.0 0.0 0.0 0.0 0.0 1.0 0.0 1.12043132e-14 0.0 166.0 0.0
0.00698139013 0.0182303006 0.0 0.0 -6242.613 170.248441 2473.19707 0.0 0.0 1.0 2643.44551 3.92671134e-12 -3421457.01 174.0 0.0
0.00941764145 0.0159444509 0.0 0.0 -2945.98913 89.6678427 2519.94863 0.0 0.0 1.0 2609.61647 4.18444636e-12 -3256036.93 428.0 0.0
0.011817142 0.0194761505 0.0 0.0 -11771.642 84.9170716 2198.52754 0.0 0.0 1.0 2283.44461 5.45820555e-13 -3773289.23 440.0 0.0
0.0058974396 0.0194150005 0.0 0.0 -5253.95792 93.9897583 2015.36346 0.0 0.0 1.0 2109.35322 6.44941287e-12 -1358114.81 442.0 0.0
0.0123226418 0.0210702503 0.0 0.0 -13036.0522 63.1845479 1930.02366 0.0 0.0 1.0 1993.20821 7.84919098e-13 -2618170.23 447.0 0.0
0.00344643321 0.0183282506 0.0 0.0 0.0 0.0 0.0 0.0 0.0 1.0 0.0 1.80956709e-14 0.0 458.0 0.0
0.0108078421 0.0141883513 0.0 0.0 1918.8401 -45.8761509 2657.53553 0.0 0.0 1.0 2611.65938 3.70637922e-12 -1364918.0 472.0 0.0
0.00757479015 0.0199061005 0.0 0.0 -8340.95877 174.576307 2129.56675 0.0 0.0 1.0 2304.14305 4.94531508e-12 -626016.456 480.0 0.0
0.00249759321 0.0200321004 0.0 0.0 0.0 0.0 0.0 0.0 0.0 1.0 0.0 1.34462559e-13 0.0 489.0 0.0
0.00523423943 0.0179853507 0.0 0.0 -4455.42216 -76.931027 1922.28411 0.0 0.0 1.0 1845.35308 6.60003118e-12 -1799004.6 516.0 0.0
0.00363069321 0.0211863002 0.0 0.0 0.0 0.0 0.0 0.0 0.0 1.0 0.0 5.38074009e-14 0.0 528.0 0.0
0.00969819144 0.0174651008 0.0 0.0 -5497.04537 50.8237111 2318.60791 0.0 0.0 1.0 2369.43162 2.80472258e-12 -3467119.55 529.0 0.0
0.00851509005 0.0228598502 0.0 0.0 -7370.16649 230.998951 2006.12571 0.0 0.0 1.0 2237.12466 7.47299522e-12 427341.822 536.0 0.0
0.0101669406 0.0233848001 0.0 0.0 -7827.43344 206.638104 1670.73832 0.0 0.0 1.0 1877.37642 6.43781251e-12 -965080.424 563.0 0.0
0.00499464821 0.0221140501 0.0 0.0 0.0 0.0 0.0 0.0 0.0 1.0 0.0 3.36775421e-13 0.0 566.0 0.0
0.00367731821 0.02448935 0.0 0.0 0.0 0.0 0.0 0.0 0.0 1.0 0.0 5.00285939e-14 0.0 584.0 0.0
0.00648618998 0.0150176511 0.0 0.0 -543.069032 146.891122 2566.72196 0.0 0.0 1.0 2713.61309 7.85742861e-12 -1033645.44 593.0 0.0
0.0050739894 0.0146506013 0.0 0.0 -289.971285 -50.2163991 1992.42107 0.0 0.0 1.0 1942.20467 6.0537321e-12 -330044.407 595.0 0.0
0.0122729429 0.0133199015 0.0 0.0 2623.94737 -157.221345 2694.13062 0.0 0.0 1.0 2536.90927 1.18300521e-12 -49712.5329 611.0 0.0
0.0062602391 0.0245215 0.0 0.0 1033.31756 341.833178 1681.08548 0.0 0.0 1.0 2022.91866 9.20030094e-12 2515855.97 625.0 0.0
0.00213539321 0.0235099 0.0 0.0 0.0 0.0 0.0 0.0 0.0 1.0 0.0 5.93532438e-14 0.0 693.0 0.0
0.00526343951 0.016218901 0.0 0.0 -4062.56892 -52.5260853 2052.8296 0.0 0.0 1.0 2000.30352 5.86128851e-12 -1308292.62 694.0 0.0
0.00789674073 0.0156295509 0.0 0.0 840.024618 71.8001715 2625.77976 0.0 0.0 1.0 2697.57993 6.05977951e-12 -3782581.08 697.0 0.0
0.0123036929 0.0150560512 0.0 0.0 -304.664898 -71.898566 2561.14947 0.0 0.0 1.0 2489.2509 6.38545034e-13 -998692.561 699.0 0.0
0.0102565415 0.0190732005 0.0 0.0 -9883.33423 78.1095876 2128.44596 0.0 0.0 1.0 2206.55555 1.71385351e-12 -4198979.2 759.0 0.0
0.00914494077 0.0202286504 0.0 0.0 -10350.8361 139.772907 2130.37641 0.0 0.0 1.0 2270.14931 3.54370985e-12 -2776424.64 761.0 0.0
0.00796719005 0.0214893503 0.0 0.0 -10018.9369 221.115321 2076.64838 0.0 0.0 1.0 2297.7637 5.45199908e-12 -936284.515 778.0 0.0
0.00936579145 0.0145949011 0.0 0.0 1245.79806 42.496906 2711.54863 0.0 0.0 1.0 2754.04554 4.74434529e-12 -2953476.18 780.0 0.0
0.000695648206 0.0226793502 0.0 0.0 0.0 0.0 0.0 0.0 0.0 1.0 0.0 2.26365472e-14 0.0 816.0 0.0
0.00493285321 0.0252901499 0.0 0.0 0.0 0.0 0.0 0.0 0.0 2.0 0.0 2.41520079e-15 0.0 968.0 0.0
0.00681209023 0.0344452489 0.0 0.0 3531.99883 28.4459233 2476.55343 0.0 0.0 2.0 2504.99935 6.02396961e-12 -3297145.12 954.0 0.0
0.000742838206 0.0342668488 0.0 0.0 0.0 0.0 0.0 0.0 0.0 2.0 0.0 7.97762086e-16 0.0 951.0 0.0
0.012242243 0.0358787486 0.0 0.0 161.511236 -60.4036489 2678.27589 0.0 0.0 2.0 2617.87225 5.29775703e-13 -758992.049 931.0 0.0
0.00368506321 0.0326609992 0.0 0.0 0.0 0.0 0.0 0.0 0.0 2.0 0.0 1.42116339e-13 0.0 928.0 0.0
0.00659974002 0.0327347492 0.0 0.0 6016.94391 69.5473984 2403.66137 0.0 0.0 2.0 2473.20877 5.44362458e-12 -3132917.91 920.0 0.0
0.0110790422 0.0333580991 0.0 0.0 7339.04128 -18.4521192 2418.64828 0.0 0.0 2.0 2400.19616 1.70321072e-12 -3404924.19 911.0 0.0
0.011897091 0.0257467 0.0 0.0 2951.93933 136.938798 1619.18139 0.0 0.0 2.0 1756.12019 3.84066278e-12 1496784.0 900.0 0.0
0.00931109057 0.0292728497 0.0 0.0 13035.6501 181.612861 2324.35623 0.0 0.0 2.0 2505.96909 4.6953001e-12 -1473639.19 872.0 0.0
0.0122087921 0.0306178995 0.0 0.0 13334.0454 -10.3199364 2217.2241 0.0 0.0 2.0 2206.90417 5.71418169e-13 -2549985.91 868.0 0.0
0.000669673206 0.0260641498 0.0 0.0 0.0 0.0 0.0 0.0 0.0 2.0 0.0 3.78864852e-14 0.0 853.0 0.0
0.00346807321 0.0293691496 0.0 0.0 0.0 0.0 0.0 0.0 0.0 2.0 0.0 1.18800406e-13 0.0 849.0 0.0
0.00812484083 0.0336072491 0.0 0.0 5014.05071 68.6892077 2504.96971 0.0 0.0 2.0 2573.65892 4.03751007e-12 -4605663.96 830.0 0.0
0.00353320321 0.0278159497 0.0 0.0 0.0 0.0 0.0 0.0 0.0 2.0 0.0 6.61688311e-14 0.0 384.0 0.0
0.000751218206 0.0310115493 0.0 0.0 0.0 0.0 0.0 0.0 0.0 2.0 0.0 2.71742184e-14 0.0 342.0 0.0
0.0107311414 0.0300737495 0.0 0.0 14012.7811 34.414868 2163.41972 0.0 0.0 2.0 2197.83459 2.36122514e-12 -2702566.75 326.0 0.0
0.00210650321 0.0286265996 0.0 0.0 0.0 0.0 0.0 0.0 0.0 2.0 0.0 1.61202613e-13 0.0 321.0 0.0
0.00814204083 0.0352375988 0.0 0.0 -907.011928 9.84541965 2535.42306 0.0 0.0 2.0 2545.26848 6.74885406e-12 -2859164.57 300.0 0.0
0.0080308402 0.0302590995 0.0 0.0 11401.9607 105.030868 2335.56398 0.0 0.0 2.0 2440.59485 4.69132173e-12 -1379098.78 278.0 0.0
0.0123853926 0.0323203992 0.0 0.0 12573.2763 -39.1710387 2329.22102 0.0 0.0 2.0 2290.04998 3.0592601e-13 -2989519.54 273.0 0.0
0.00499202821 0.0302471496 0.0 0.0 0.0 0.0 0.0 0.0 0.0 2.0 0.0 2.85593609e-13 0.0 271.0 0.0
0.00791399044 0.0319091993 0.0 0.0 7910.85644 47.7010563 2379.86815 0.0 0.0 2.0 2427.56921 4.03920545e-12 -2551404.72 263.0 0.0
0.00226125821 0.033413599 0.0 0.0 0.0 0.0 0.0 0.0 0.0 2.0 0.0 2.5292573e-13 0.0 249.0 0.0
0.00530238955 0.0335007491 0.0 0.0 4307.55356 -43.3336108 2149.3077 0.0 0.0 2.0 2105.97409 6.11963471e-12 -2785713.28 222.0 0.0
0.00216620321 0.0251241999 0.0 0.0 0.0 0.0 0.0 0.0 0.0 2.0 0.0 4.95836222e-14 0.0 217.0 0.0
0.00223733821 0.0366438484 0.0 0.0 0.0 0.0 0.0 0.0 0.0 2.0 0.0 4.59981123e-14 0.0 206.0 0.0
0.00670509009 0.0361317487 0.0 0.0 731.203548 -8.84647998 2552.09545 0.0 0.0 2.0 2543.24897 7.00163616e-12 -734635.493 75.0 0.0
0.00645548943 0.0294544496 0.0 0.0 7636.53772 188.105189 2049.6641 0.0 0.0 2.0 2237.76929 6.32182805e-12 -507618.905 3.0 0.0
0.00381311821 0.0356924986 0.0 0.0 0.0 0.0 0.0 0.0 0.0 2.0 0.0 3.45975403e-14 0.0 41.0 0.0
0.000744623206 0.0358819485 0.0 0.0 0.0 0.0 0.0 0.0 0.0 2.0 0.0 1.22874157e-14 0.0 109.0 0.0
0.000794728206 0.0276726497 0.0 0.0 0.0 0.0 0.0 0.0 0.0 2.0 0.0 1.23632172e-13 0.0 120.0 0.0
0.000672068206 0.0293868495 0.0 0.0 0.0 0.0 0.0 0.0 0.0 2.0 0.0 1.03816705e-13 0.0 150.0 0.0
0.00369561821 0.0341176489 0.0 0.0 0.0 0.0 0.0 0.0 0.0 2.0 0.0 6.90838054e-14 0.0 154.0 0.0
0.0103878406 0.02502405 0.0 0.0 -1750.22722 225.002082 1685.67577 0.0 0.0 2.0 1910.67785 5.89871934e-12 -155724.658 157.0 0.0
0.00217141321 0.0268607498 0.0 0.0 0.0 0.0 0.0 0.0 0.0 2.0 0.0 4.70315492e-14 0.0 181.0 0.0
0.00532468952 0.0369411985 0.0 0.0 -131.571859 67.1341253 2290.55316 0.0 0.0 2.0 2357.68729 6.1560087e-12 -654380.753 191.0 0.0
0.00223254321 0.0351203487 0.0 0.0 0.0 0.0 0.0 0.0 0.0 2.0 0.0 9.32766923e-14 0.0 415.0 0.0
0.00214572321 0.0318212992 0.0 0.0 0.0 0.0 0.0 0.0 0.0 2.0 0.0 1.84941137e-13 0.0 420.0 0.0
0.00825874088 0.0368805486 0.0 0.0 -37.0644781 -9.38190027 2724.72103 0.0 0.0 2.0 2715.33913 7.69625057e-12 -915540.769 429.0 0.0
0.00962114158 0.034343699 0.0 0.0 3273.81737 60.1524132 2608.49638 0.0 0.0 2.0 2668.6488 3.85008843e-12 -2711088.24 449.0 0.0
0.0105395907 0.0267112499 0.0 0.0 6566.25969 158.342084 1796.74134 0.0 0.0 2.0 1955.08342 5.99235195e-12 -440759.806 452.0 0.0
0.00942644103 0.0311251994 0.0 0.0 11559.2246 67.4688577 2403.4475 0.0 0.0 2.0 2470.91636 3.15102076e-12 -2760542.97 457.0 0.0
0.00631333923 0.0277839998 0.0 0.0 4624.93208 310.582152 1854.17826 0.0 0.0 2.0 2164.76041 8.230131e-12 1107850.13 460.0 0.0
0.00650088967 0.0311052494 0.0 0.0 8087.11004 105.337033 2180.51904 0.0 0.0 2.0 2285.85608 5.22650397e-12 -1238936.48 464.0 0.0
0.00528398953 0.0351510988 0.0 0.0 -585.034177 -54.8802707 2214.16478 0.0 0.0 2.0 2159.28451 6.3567738e-12 -2372384.22 474.0 0.0
0.010732741 0.0283909498 0.0 0.0 11921.1181 89.2673328 1978.42095 0.0 0.0 2.0 2067.68828 4.06466962e-12 -2067308.0 485.0 0.0
0.0120889416 0.0290319496 0.0 0.0 12013.9853 -42.6432742 1824.59437 0.0 0.0 2.0 1781.9511 1.47187089e-12 -2471179.08 495.0 0.0
0.00962134154 0.0360275487 0.0 0.0 2191.74467 -8.91386201 2548.86245 0.0 0.0 2.0 2539.94859 6.34400252e-12 -690419.456 530.0 0.0
0.00756818953 0.02540105 0.0 0.0 1574.84969 359.556579 2013.01872 0.0 0.0 2.0 2372.57529 1.16969477e-11 1789604.15 532.0 0.0
0.00919919025 0.0276797998 0.0 0.0 8658.55092 247.02107 2145.86445 0.0 0.0 2.0 2392.88552 7.36727157e-12 -173900.051 569.0 0.0
0.00510648934 0.0318949493 0.0 0.0 3359.71212 -64.5730626 1833.90595 0.0 0.0 2.0 1769.33289 6.24147111e-12 -1251095.57 604.0 0.0
0.0109712922 0.0350090988 0.0 0.0 1239.461 -51.0280859 2516.97753 0.0 0.0 2.0 2465.94944 3.24571945e-12 -828603.508 618.0 0.0
0.0109118918 0.0316587494 0.0 0.0 13180.3785 71.0232126 2372.88572 0.0 0.0 2.0 2443.90893 1.39868584e-12 -2687325.4 639.0 0.0
0.00957054136 0.0327413992 0.0 0.0 7809.61607 50.8131751 2376.42858 0.0 0.0 2.0 2427.24176 2.52395618e-12 -3565691.76 640.0 0.0
0.00790753986 0.0285711997 0.0 0.0 8488.5339 217.165113 2181.688 0.0 0.0 2.0 2398.85311 6.24221049e-12 158949.359 649.0 0.0
0.0110858424 0.0369075484 0.0 0.0 -23.9100613 12.9942758 2824.48056 0.0 0.0 2.0 2837.47483 2.91554399e-12 324150.066 657.0 0.0
0.00210042321 0.0302297495 0.0 0.0 0.0 0.0 0.0 0.0 0.0 2.0 0.0 9.86590777e-14 0.0 668.0 0.0
0.00493450821 0.0286316497 0.0 0.0 0.0 0.0 0.0 0.0 0.0 2.0 0.0 1.87742876e-13 0.0 674.0 0.0
0.00911619012 0.0260556499 0.0 0.0 2518.08738 314.109928 2019.18949 0.0 0.0 2.0 2333.29942 9.59787072e-12 -337564.731 680.0 0.0
0.00358327321 0.0371360483 0.0 0.0 0.0 0.0 0.0 0.0 0.0 2.0 0.0 4.98773268e-14 0.0 715.0 0.0
0.0120119912 0.0273215998 0.0 0.0 10877.6055 66.682542 1793.88963 0.0 0.0 2.0 1860.57218 3.05784436e-12 677605.402 717.0 0.0
0.00627598913 0.0261931999 0.0 0.0 2801.00639 380.283324 1696.8162 0.0 0.0 2.0 2077.09953 1.0897762e-11 2535346.35 735.0 0.0
0.000665243206 0.032643149 0.0 0.0 0.0 0.0 0.0 0.0 0.0 2.0 0.0 5.11425848e-17 0.0 737.0 0.0
0.00491818821 0.0270221998 0.0 0.0 0.0 0.0 0.0 0.0 0.0 2.0 0.0 9.64367702e-14 0.0 755.0 0.0
0.00772678963 0.0269937998 0.0 0.0 3951.70848 324.177346 2073.5276 0.0 0.0 2.0 2397.70495 9.45111654e-12 1783433.0 756.0 0.0
0.00358520321 0.0260599499 0.0 0.0 0.0 0.0 0.0 0.0 0.0 2.0 0.0 1.55189645e-16 0.0 762.0 0.0
0.00359289821 0.0310378495 0.0 0.0 0.0 0.0 0.0 0.0 0.0 2.0 0.0 1.17386874e-13 0.0 788.0 0.0
0.0123814937 0.0448192968 0.0 0.0 -6119.41807 -59.996793 3075.12219 0.0 0.0 3.0 3015.12539 9.19736405e-13 -695541.702 996.0 0.0
0.00372133321 0.0437736974 0.0 0.0 0.0 0.0 0.0 0.0 0.0 3.0 0.0 2.31701615e-14 0.0 993.0 0.0
0.0118685432 0.0416996975 0.0 0.0 -770.400927 -40.3371318 3002.82753 0.0 0.0 3.0 2962.4904 6.09625718e-13 -1289763.69 987.0 0.0
0.00597268981 0.0451973972 0.0 0.0 -2714.23628 130.834246 2875.44886 0.0 0.0 3.0 3006.28311 5.15754155e-12 -987548.519 974.0 0.0
0.0104296925 0.0426719974 0.0 0.0 1286.61183 -17.3841128 3090.13499 0.0 0.0 3.0 3072.75087 2.65216914e-12 -1967720.56 945.0 0.0
0.00334177321 0.0423485976 0.0 0.0 0.0 0.0 0.0 0.0 0.0 3.0 0.0 1.74227315e-15 0.0 934.0 0.0
0.00189194321 0.0466433472 0.0 0.0 0.0 0.0 0.0 0.0 0.0 3.0 0.0 3.16007362e-14 0.0 918.0 0.0
0.000859348206 0.0375097983 0.0 0.0 0.0 0.0 0.0 0.0 0.0 3.0 0.0 7.10495022e-16 0.0 904.0 0.0
0.0120317935 0.0431968972 0.0 0.0 -3036.67618 -8.30267715 2980.51827 0.0 0.0 3.0 2972.2156 6.47486176e-13 -1042565.83 896.0 0.0
0.0101598425 0.0468194466 0.0 0.0 137.991792 299.303798 3812.99645 0.0 0.0 3.0 4112.30024 2.38606866e-12 -3332010.15 889.0 0.0
0.0106202926 0.0442494471 0.0 0.0 -912.925381 0.378558097 3247.8931 0.0 0.0 3.0 3248.27165 2.7729506e-12 -1316667.3 874.0 0.0
0.00430342821 0.0382377982 0.0 0.0 0.0 0.0 0.0 0.0 0.0 3.0 0.0 6.04609196e-15 0.0 865.0 0.0
0.00857164151 0.0493644459 0.0 0.0 -357.003201 -314.887928 4187.88064 0.0 0.0 3.0 3872.99272 1.54252468e-12 -3190411.59 825.0 0.0
0.0102226422 0.0409133478 0.0 0.0 -2459.73461 -8.26743066 3000.42817 0.0 0.0 3.0 2992.16074 2.0504623e-12 367510.178 406.0 0.0
0.00782544094 0.0451386471 0.0 0.0 -2645.11797 144.41472 3751.29281 0.0 0.0 3.0 3895.70753 5.52514748e-12 -1369787.17 405.0 0.0
0.00234176321 0.039897798 0.0 0.0 0.0 0.0 0.0 0.0 0.0 3.0 0.0 8.95795831e-17 0.0 389.0 0.0
0.00541438952 0.0436817474 0.0 0.0 596.591049 177.087963 2361.57394 0.0 0.0 3.0 2538.6619 5.80211665e-12 480691.41 373.0 0.0
0.00205810821 0.0415434978 0.0 0.0 0.0 0.0 0.0 0.0 0.0 3.0 0.0 9.0615742e-18 0.0 358.0 0.0
0.00621593992 0.0421629476 0.0 0.0 975.328299 218.050359 3018.28713 0.0 0.0 3.0 3236.33749 5.71071095e-12 -2177607.11 343.0 0.0
0.00979139182 0.0376832984 0.0 0.0 230.783967 -80.7979897 2762.42577 0.0 0.0 3.0 2681.62779 4.97557764e-12 -611989.7 340.0 0.0
0.010041692 0.0393266981 0.0 0.0 -2503.26538 -37.1721996 2963.77011 0.0 0.0 3.0 2926.59792 2.77641207e-12 658508.711 333.0 0.0
0.00402020821 0.039600948 0.0 0.0 0.0 0.0 0.0 0.0 0.0 3.0 0.0 1.47960758e-15 0.0 332.0 0.0
0.00681999014 0.0377409484 0.0 0.0 -456.382989 50.2765484 2678.99273 0.0 0.0 3.0 2729.26928 6.78983911e-12 212849.114 279.0 0.0
0.00695074024 0.0438802474 0.0 0.0 1202.44045 256.766978 3316.04691 0.0 0.0 3.0 3572.81389 4.75907473e-12 63591.32 267.0 0.0
0.0114678933 0.0476943464 0.0 0.0 -2352.94275 310.297521 3978.69046 0.0 0.0 3.0 4288.98798 2.3399352e-12 -2909994.11 259.0 0.0
0.00487797821 0.0492842463 0.0 0.0 0.0 0.0 0.0 0.0 0.0 3.0 0.0 5.26637734e-14 0.0 88.0 0.0
0.00397532321 0.0479878468 0.0 0.0 0.0 0.0 0.0 0.0 0.0 3.0 0.0 1.54013541e-15 0.0 76.0 0.0
0.00942304198 0.045192847 0.0 0.0 -2702.18787 115.254567 3374.44591 0.0 0.0 3.0 3489.70048 2.97234127e-12 -960222.886 67.0 0.0
0.0110798931 0.0457819967 0.0 0.0 -2008.16173 75.3005663 3327.03165 0.0 0.0 3.0 3402.33222 2.58882599e-12 -1384540.06 59.0 0.0
0.000776668206 0.0391268481 0.0 0.0 0.0 0.0 0.0 0.0 0.0 3.0 0.0 1.33995104e-14 0.0 18.0 0.0
0.00422996821 0.0451792971 0.0 0.0 0.0 0.0 0.0 0.0 0.0 3.0 0.0 2.66330305e-14 0.0 9.0 0.0
0.00851684141 0.0466477968 0.0 0.0 -2952.64688 266.259316 3959.28193 0.0 0.0 3.0 4225.54124 4.2125173e-12 -2721019.12 24.0 0.0
0.00892099151 0.0418057477 0.0 0.0 -2502.29795 64.5725042 3179.13792 0.0 0.0 3.0 3243.71043 2.75750015e-12 -512316.469 106.0 0.0
0.00241086821 0.0449794973 0.0 0.0 0.0 0.0 0.0 0.0 0.0 3.0 0.0 7.31301767e-14 0.0 110.0 0.0
0.0104483928 0.049220946 0.0 0.0 1451.8811 -261.710262 3777.91771 0.0 0.0 3.0 3516.20745 1.05624708e-12 -4261667.54 126.0 0.0
0.00225338821 0.0480202471 0.0 0.0 0.0 0.0 0.0 0.0 0.0 3.0 0.0 1.60181754e-14 0.0 138.0 0.0
0.00768849078 0.0480169965 0.0 0.0 -142.753724 247.945694 4456.10527 0.0 0.0 3.0 4704.05096 2.87255945e-12 -1294787.5 143.0 0.0
0.00869589126 0.040131098 0.0 0.0 373.137493 171.493422 3160.75631 0.0 0.0 3.0 3332.24973 3.34127444e-12 502265.227 158.0 0.0
0.000820343206 0.0441694975 0.0 0.0 0.0 0.0 0.0 0.0 0.0 3.0 0.0 8.76562716e-14 0.0 189.0 0.0
0.00840084104 0.0385740983 0.0 0.0 1380.35372 24.7454752 3011.84885 0.0 0.0 3.0 3036.59433 4.04253038e-12 169709.863 195.0 0.0
0.00206863821 0.0433339475 0.0 0.0 0.0 0.0 0.0 0.0 0.0 3.0 0.0 1.41529865e-14 0.0 410.0 0.0
0.00500743821 0.0466517969 0.0 0.0 0.0 0.0 0.0 0.0 0.0 3.0 0.0 1.09819422e-14 0.0 435.0 0.0
0.0076214907 0.0426490475 0.0 0.0 -441.816265 221.995401 3315.61255 0.0 0.0 3.0 3537.60795 4.7162712e-12 -1092425.37 478.0 0.0
0.00558098954 0.0388680981 0.0 0.0 2346.90834 137.897633 2511.40436 0.0 0.0 3.0 2649.30199 4.99138132e-12 139339.391 488.0 0.0
0.000732518206 0.0424567977 0.0 0.0 0.0 0.0 0.0 0.0 0.0 3.0 0.0 1.8752911e-14 0.0 490.0 0.0
0.000615073206 0.0476769473 0.0 0.0 0.0 0.0 0.0 0.0 0.0 3.0 0.0 4.04680528e-14 0.0 517.0 0.0
0.00702239025 0.0394315981 0.0 0.0 1014.22898 83.1395997 2960.33049 0.0 0.0 3.0 3043.47009 4.19842871e-12 1332763.79 522.0 0.0
0.00683784029 0.0465068969 0.0 0.0 -3692.71111 297.97541 3988.54841 0.0 0.0 3.0 4286.52382 4.66093408e-12 -3402547.24 556.0 0.0
0.00595543983 0.0479560966 0.0 0.0 -1130.70537 302.602098 3773.17358 0.0 0.0 3.0 4075.77568 3.96939003e-12 475155.81 561.0 0.0
0.0115670929 0.0399546979 0.0 0.0 -4959.02724 -17.7468266 3020.33534 0.0 0.0 3.0 3002.58851 1.04877688e-12 1004553.93 576.0 0.0
0.000708733206 0.0457892474 0.0 0.0 0.0 0.0 0.0 0.0 0.0 3.0 0.0 7.15815764e-14 0.0 597.0 0.0
0.00361615321 0.0408721478 0.0 0.0 0.0 0.0 0.0 0.0 0.0 3.0 0.0 6.17771905e-16 0.0 602.0 0.0
0.00734179053 0.0410622978 0.0 0.0 -1510.44705 107.175166 3109.97806 0.0 0.0 3.0 3217.15323 3.47185467e-12 32069.4704 623.0 0.0
0.0114015427 0.0384338482 0.0 0.0 -3772.80659 1.54180461 2991.25214 0.0 0.0 3.0 2992.79394 1.74067164e-12 511909.537 632.0 0.0
0.00253358821 0.0384278981 0.0 0.0 0.0 0.0 0.0 0.0 0.0 3.0 0.0 6.18130339e-15 0.0 638.0 0.0
0.0121951438 0.0492730958 0.0 0.0 184.106879 -224.657645 3722.88166 0.0 0.0 3.0 3498.22401 1.03538967e-12 -2530088.56 646.0 0.0
0.00666789024 0.049320646 0.0 0.0 -2029.4054 -352.386364 3902.89065 0.0 0.0 3.0 3550.50429 5.36516135e-12 -633521.264 656.0 0.0
0.00293755321 0.0493118969 0.0 0.0 0.0 0.0 0.0 0.0 0.0 3.0 0.0 8.50979829e-14 0.0 659.0 0.0
0.00951344205 0.0481705463 0.0 0.0 -81.9769047 168.543496 4426.68743 0.0 0.0 3.0 4595.23092 2.2621217e-12 -2618016.92 681.0 0.0
0.00343342321 0.0465558471 0.0 0.0 0.0 0.0 0.0 0.0 0.0 3.0 0.0 6.95068486e-14 0.0 731.0 0.0